 Gaussian 16, Revision A.03,
 Gaussian 16:  EM64W-G16RevA.03 17-Dec-2016

 -----
 # pm3
 -----

 --
 T1
 --
 Symbolic Z-matrix:
 Charge =  0 Multiplicity = 1

                         Standard orientation:
 ---------------------------------------------------------------------
 Center     Atomic      Atomic             Coordinates (Angstroms)
 Number     Number       Type             X           Y           Z
 ---------------------------------------------------------------------
      1          1           0        2.094010    0.251271    0.000000
      2          7           0        1.259876   -0.434747    0.000000
      3          6           0        0.000000    0.379325    0.000000
      4          8           0       -1.364143    0.064501    0.000000
 ---------------------------------------------------------------------

 SCF Done:  E(RPM3) =  0.127265546645     A.U. after   16 cycles

 The electronic state is 1-A'.
 Alpha  occ. eigenvalues --   -1.25132  -1.00177  -0.71656  -0.59408  -0.51234
 Alpha  occ. eigenvalues --   -0.50862  -0.42521  -0.38923
 Alpha virt. eigenvalues --   -0.08683  -0.02238   0.07397   0.13871   0.18713

 Mulliken charges:
               1
     1  H    0.105557
     2  N   -0.197656
     3  C    0.354513
     4  O   -0.262414
 Sum of Mulliken charges =   0.00000

 Dipole moment (field-independent basis, Debye):
    X=              1.7744    Y=              2.0239    Z=              0.0000  Tot=              2.6916
 N-N= 4.386126725327D+01 E-N=-4.228281083371D+01  KE=-3.438694683616D+01
 Symmetry A'   KE=-2.594695007051D+01
 Symmetry A"   KE=-8.439996765659D+00
 1|1|UNPC-DESKTOP-RNC6JTU|SP|RPM3|ZDO|C1H1N1O1|BNULK|27-Jul-2022|0||# p
 m3||T1||0,1|H|N,1,1.08|C,2,1.5,1,107.696454|O,3,1.4,2,134.13593,1,180.
 ,0||Version=EM64W-G16RevA.03|State=1-A'|HF=0.1272655|RMSD=1.407e-009|D
 ipole=0.1715464,0.,-1.0449586|PG=CS [SG(C1H1N1O1)]||@

 LAWS OF PROGRAMMING DEFINITION:  A WORKING PROGRAM

 Normal termination of Gaussian 16 at Wed Jul 27 01:01:06 2022.
