 Gaussian 16, Revision A.03,
 Gaussian 16:  EM64W-G16RevA.03 17-Dec-2016

 ----------
 # hf/3-21g
 ----------

 -------------------
 Title Card Required
 -------------------
 Symbolic Z-matrix:
 Charge =  0 Multiplicity = 1

                         Standard orientation:
 ---------------------------------------------------------------------
 Center     Atomic      Atomic             Coordinates (Angstroms)
 Number     Number       Type             X           Y           Z
 ---------------------------------------------------------------------
      1          6           0       -0.451347   -0.196243   -0.592178
      2          1           0        0.006291   -0.992802   -1.140778
      3          1           0       -0.584319    0.648974   -1.234695
      4          1           0       -1.403210   -0.517601   -0.223958
      5          6           0        0.451347    0.196243    0.592178
      6          1           0        0.736506    1.223260    0.498258
      7          1           0       -0.082385    0.056686    1.508996
      8          1           0        1.327116   -0.418515    0.592177
 ---------------------------------------------------------------------

 SCF Done:  E(RHF) =  -78.7875097931     A.U. after    9 cycles

 The electronic state is 1-A.
 Alpha  occ. eigenvalues --  -11.14377 -11.14347  -1.02383  -0.84670  -0.60743
 Alpha  occ. eigenvalues --   -0.60743  -0.49502  -0.48927  -0.48927
 Alpha virt. eigenvalues --    0.27845   0.30813   0.30813   0.35280   0.42590
 Alpha virt. eigenvalues --    0.43160   0.43160   0.90687   0.90687   0.96203
 Alpha virt. eigenvalues --    1.08264   1.10516   1.10516   1.30930   1.35833

 Mulliken charges:
               1
     1  C   -0.617116
     2  H    0.205705
     3  H    0.205705
     4  H    0.205706
     5  C   -0.617116
     6  H    0.205705
     7  H    0.205705
     8  H    0.205706
 Sum of Mulliken charges =   0.00000

 Dipole moment (field-independent basis, Debye):
    X=              0.0000    Y=              0.0000    Z=              0.0000  Tot=              0.0000
 Quadrupole moment (field-independent basis, Debye-Ang):
   XX=            -15.1483   YY=            -14.8945   ZZ=            -15.3742
   XY=             -0.1361   XZ=             -0.4107   YZ=             -0.1786

 Normal termination of Gaussian 16 at Mon Sep 19 01:53:19 2022.
