 Gaussian 16, Revision A.03,
 Gaussian 16:  EM64W-G16RevA.03 17-Dec-2016

 -----
 # pm3
 -----

 --
 T1
 --
 Symbolic Z-matrix:
 Charge =  0 Multiplicity = 1

                         Standard orientation:
 ---------------------------------------------------------------------
 Center     Atomic      Atomic             Coordinates (Angstroms)
 Number     Number       Type             X           Y           Z
 ---------------------------------------------------------------------
      1          6           0       -0.674140   -0.106133   -0.356611
      2          1           0       -0.746949   -1.121247   -0.686978
      3          1           0       -0.738420    0.548968   -1.200182
      4          1           0       -1.473841    0.106398    0.321775
      5          6           0        0.674140    0.106133    0.356611
      6          1           0        0.747773    1.121740    0.685275
      7          1           0        0.737607   -0.547593    1.201310
      8          1           0        1.473830   -0.108267   -0.321199
 ---------------------------------------------------------------------

 SCF Done:  E(RPM3) = -0.248366675450E-01 A.U. after    9 cycles

 The electronic state is 1-A.
 Alpha  occ. eigenvalues --   -1.27010  -0.85223  -0.56374  -0.56374  -0.49355
 Alpha  occ. eigenvalues --   -0.44915  -0.44915
 Alpha virt. eigenvalues --    0.14472   0.15682   0.15682   0.16168   0.17341
 Alpha virt. eigenvalues --    0.18482   0.18482

 Mulliken charges:
               1
     1  C   -0.108285
     2  H    0.036095
     3  H    0.036095
     4  H    0.036095
     5  C   -0.108285
     6  H    0.036095
     7  H    0.036095
     8  H    0.036095
 Sum of Mulliken charges =   0.00000

 Dipole moment (field-independent basis, Debye):
    X=              0.0000    Y=              0.0000    Z=              0.0000  Tot=              0.0000
 N-N= 3.404816461227D+01 E-N=-4.144455684816D+01  KE=-1.741810418689D+01
 1|1|UNPC-DESKTOP-RNC6JTU|SP|RPM3|ZDO|C2H6|BNULK|19-Jul-2022|0||# pm3||
 T1||0,1|C|H,1,1.07|H,1,1.07,2,109.47122063|H,1,1.07,3,109.47122063,2,-
 120.0000006,0|C,1,1.54,4,109.47122063,3,120.00003407,0|H,5,1.07,1,109.
 47122063,4,-60.1110994,0|H,5,1.07,1,109.47122063,4,59.88891539,0|H,5,1
 .07,1,109.47122063,4,179.88890799,0||Version=EM64W-G16RevA.03|State=1-
 A|HF=-0.0248367|RMSD=6.528e-009|Dipole=0.,0.,0.|PG=C01 [X(C2H6)]||@

 WE HAVE LEARNED THAT NOTHING IS SIMPLE AND

 Normal termination of Gaussian 16 at Tue Jul 19 23:39:08 2022.
