 Gaussian 16, Revision A.03,
 Gaussian 16:  EM64W-G16RevA.03 17-Dec-2016

 -----
 # pm3
 -----

 --
 T1
 --
 Symbolic Z-matrix:
 Charge =  0 Multiplicity = 1

                         Standard orientation:
 ---------------------------------------------------------------------
 Center     Atomic      Atomic             Coordinates (Angstroms)
 Number     Number       Type             X           Y           Z
 ---------------------------------------------------------------------
      1          1           0        0.000000    0.000000    0.000000
      2          7           0        0.000000    0.000000    1.080000
      3          6           0        1.429020    0.000000    1.535961
      4          8           0        2.070793    0.343650    2.731801
 ---------------------------------------------------------------------

 SCF Done:  E(RPM3) =  0.126712288444     A.U. after   19 cycles

 The electronic state is 1-A.
 Alpha  occ. eigenvalues --   -1.25040  -1.00263  -0.71614  -0.59553  -0.51148
 Alpha  occ. eigenvalues --   -0.50776  -0.42663  -0.38978
 Alpha virt. eigenvalues --   -0.08537  -0.02294   0.07324   0.13663   0.18737

 Mulliken charges:
               1
     1  H    0.105094
     2  N   -0.185427
     3  C    0.346529
     4  O   -0.266196
 Sum of Mulliken charges =   0.00000

 Dipole moment (field-independent basis, Debye):
    X=             -1.5291    Y=              2.1729    Z=              0.3281  Tot=              2.6771
 N-N= 4.386558210449D+01 E-N=-4.229007320188D+01  KE=-3.438696342464D+01
 1|1|UNPC-DESKTOP-RNC6JTU|SP|RPM3|ZDO|C1H1N1O1|BNULK|25-Jul-2022|0||# p
 m3||T1||0,1|H|N,1,1.08|C,2,1.5,1,107.696454|O,3,1.4,2,134.13593,1,160.
 ,0||Version=EM64W-G16RevA.03|State=1-A|HF=0.1267123|RMSD=4.420e-009|Di
 pole=0.1283116,-0.1234372,-1.0381081|PG=C01 [X(C1H1N1O1)]||@

 IF THE FACTS DO NOT CONFORM TO THE THEORY, THEY MUST BE DISPOSED OF.
 Job cpu time:       0 days  0 hours  0 minutes  3.0 seconds.
 Elapsed time:       0 days  0 hours  0 minutes  0.3 seconds.

 Normal termination of Gaussian 16 at Mon Jul 25 21:42:38 2022.
