 Gaussian 16, Revision A.03,
 Gaussian 16:  EM64W-G16RevA.03 17-Dec-2016

 -----
 # pm3
 -----

 --
 T1
 --
 Symbolic Z-matrix:
 Charge =  0 Multiplicity = 1

                         Standard orientation:
 ---------------------------------------------------------------------
 Center     Atomic      Atomic             Coordinates (Angstroms)
 Number     Number       Type             X           Y           Z
 ---------------------------------------------------------------------
      1          6           0        0.753301   -0.043901    0.153330
      2          1           0        1.146366    0.941098    0.295375
      3          1           0        1.257044   -0.514341   -0.665102
      4          1           0        0.903289   -0.619467    1.042783
      5          6           0       -0.753301    0.043901   -0.153330
      6          1           0       -1.145970   -0.940978   -0.297286
      7          1           0       -1.257317    0.512593    0.665936
      8          1           0       -0.903413    0.621095   -1.041706
 ---------------------------------------------------------------------

 SCF Done:  E(RPM3) = -0.248366401660E-01 A.U. after   10 cycles

 The electronic state is 1-A.
 Alpha  occ. eigenvalues --   -1.27010  -0.85223  -0.56375  -0.56374  -0.49355
 Alpha  occ. eigenvalues --   -0.44915  -0.44915
 Alpha virt. eigenvalues --    0.14472   0.15682   0.15682   0.16168   0.17341
 Alpha virt. eigenvalues --    0.18482   0.18482

 Mulliken charges:
               1
     1  C   -0.108285
     2  H    0.036095
     3  H    0.036095
     4  H    0.036095
     5  C   -0.108285
     6  H    0.036095
     7  H    0.036095
     8  H    0.036095
 Sum of Mulliken charges =   0.00000

 Dipole moment (field-independent basis, Debye):
    X=              0.0000    Y=              0.0000    Z=              0.0000  Tot=              0.0000
 N-N= 3.404816335504D+01 E-N=-4.144455460387D+01  KE=-1.741810407922D+01
 1|1|UNPC-DESKTOP-RNC6JTU|SP|RPM3|ZDO|C2H6|BNULK|31-Jul-2022|0||# pm3||
 T1||0,1|C|H,1,1.06999997|H,2,1.74730342,1,35.26438877|H,3,1.74730231,2
 ,59.99999504,1,-35.26436036,0|C,4,2.14826348,1,42.52098916,3,-119.9999
 2291,0|H,5,1.06999973,1,109.47122063,4,-60.11095667,0|H,5,1.070001,1,1
 09.47122063,4,59.88898893,0|H,5,1.069999,1,109.47122063,4,179.88892032
 ,0||Version=EM64W-G16RevA.03|State=1-A|HF=-0.0248366|RMSD=2.886e-009|D
 ipole=0.,0.,0.|PG=C01 [X(C2H6)]||@

 Normal termination of Gaussian 16 at Sun Jul 31 19:36:55 2022.
